LAMMPS data file Created by LigParGen - (Written by Leela S. Dodda)

      74 atoms
      73 bonds
     144 angles
     207 dihedrals

      74 atom types
      73 bond types
     144 angle types
     207 dihedral types

  -23.511110    26.488890 xlo xhi
    0.056330    50.056330 ylo yhi
   -1.028600    48.971400 zlo zhi

Masses

       1     12.011
       2     12.011
       3     12.011
       4     12.011
       5     12.011
       6     12.011
       7     12.011
       8     12.011
       9     12.011
      10     12.011
      11     12.011
      12     12.011
      13     12.011
      14     12.011
      15     12.011
      16     12.011
      17     12.011
      18     12.011
      19     12.011
      20     12.011
      21     12.011
      22     12.011
      23     12.011
      24     12.011
      25      1.008
      26      1.008
      27      1.008
      28      1.008
      29      1.008
      30      1.008
      31      1.008
      32      1.008
      33      1.008
      34      1.008
      35      1.008
      36      1.008
      37      1.008
      38      1.008
      39      1.008
      40      1.008
      41      1.008
      42      1.008
      43      1.008
      44      1.008
      45      1.008
      46      1.008
      47      1.008
      48      1.008
      49      1.008
      50      1.008
      51      1.008
      52      1.008
      53      1.008
      54      1.008
      55      1.008
      56      1.008
      57      1.008
      58      1.008
      59      1.008
      60      1.008
      61      1.008
      62      1.008
      63      1.008
      64      1.008
      65      1.008
      66      1.008
      67      1.008
      68      1.008
      69      1.008
      70      1.008
      71      1.008
      72      1.008
      73      1.008
      74      1.008

Pair Coeffs

       1      0.066  3.5000000
       2      0.066  3.5000000
       3      0.066  3.5000000
       4      0.066  3.5000000
       5      0.066  3.5000000
       6      0.066  3.5000000
       7      0.066  3.5000000
       8      0.066  3.5000000
       9      0.066  3.5000000
      10      0.066  3.5000000
      11      0.066  3.5000000
      12      0.066  3.5000000
      13      0.066  3.5000000
      14      0.066  3.5000000
      15      0.066  3.5000000
      16      0.066  3.5000000
      17      0.066  3.5000000
      18      0.066  3.5000000
      19      0.066  3.5000000
      20      0.066  3.5000000
      21      0.066  3.5000000
      22      0.066  3.5000000
      23      0.066  3.5000000
      24      0.066  3.5000000
      25      0.030  2.5000000
      26      0.030  2.5000000
      27      0.030  2.5000000
      28      0.030  2.5000000
      29      0.030  2.5000000
      30      0.030  2.5000000
      31      0.030  2.5000000
      32      0.030  2.5000000
      33      0.030  2.5000000
      34      0.030  2.5000000
      35      0.030  2.5000000
      36      0.030  2.5000000
      37      0.030  2.5000000
      38      0.030  2.5000000
      39      0.030  2.5000000
      40      0.030  2.5000000
      41      0.030  2.5000000
      42      0.030  2.5000000
      43      0.030  2.5000000
      44      0.030  2.5000000
      45      0.030  2.5000000
      46      0.030  2.5000000
      47      0.030  2.5000000
      48      0.030  2.5000000
      49      0.030  2.5000000
      50      0.030  2.5000000
      51      0.030  2.5000000
      52      0.030  2.5000000
      53      0.030  2.5000000
      54      0.030  2.5000000
      55      0.030  2.5000000
      56      0.030  2.5000000
      57      0.030  2.5000000
      58      0.030  2.5000000
      59      0.030  2.5000000
      60      0.030  2.5000000
      61      0.030  2.5000000
      62      0.030  2.5000000
      63      0.030  2.5000000
      64      0.030  2.5000000
      65      0.030  2.5000000
      66      0.030  2.5000000
      67      0.030  2.5000000
      68      0.030  2.5000000
      69      0.030  2.5000000
      70      0.030  2.5000000
      71      0.030  2.5000000
      72      0.030  2.5000000
      73      0.030  2.5000000
      74      0.030  2.5000000

Bond Coeffs

       1   268.0000     1.5290
       2   268.0000     1.5290
       3   268.0000     1.5290
       4   268.0000     1.5290
       5   268.0000     1.5290
       6   268.0000     1.5290
       7   268.0000     1.5290
       8   268.0000     1.5290
       9   268.0000     1.5290
      10   268.0000     1.5290
      11   268.0000     1.5290
      12   268.0000     1.5290
      13   268.0000     1.5290
      14   268.0000     1.5290
      15   268.0000     1.5290
      16   268.0000     1.5290
      17   268.0000     1.5290
      18   268.0000     1.5290
      19   268.0000     1.5290
      20   268.0000     1.5290
      21   268.0000     1.5290
      22   268.0000     1.5290
      23   268.0000     1.5290
      24   340.0000     1.0900
      25   340.0000     1.0900
      26   340.0000     1.0900
      27   340.0000     1.0900
      28   340.0000     1.0900
      29   340.0000     1.0900
      30   340.0000     1.0900
      31   340.0000     1.0900
      32   340.0000     1.0900
      33   340.0000     1.0900
      34   340.0000     1.0900
      35   340.0000     1.0900
      36   340.0000     1.0900
      37   340.0000     1.0900
      38   340.0000     1.0900
      39   340.0000     1.0900
      40   340.0000     1.0900
      41   340.0000     1.0900
      42   340.0000     1.0900
      43   340.0000     1.0900
      44   340.0000     1.0900
      45   340.0000     1.0900
      46   340.0000     1.0900
      47   340.0000     1.0900
      48   340.0000     1.0900
      49   340.0000     1.0900
      50   340.0000     1.0900
      51   340.0000     1.0900
      52   340.0000     1.0900
      53   340.0000     1.0900
      54   340.0000     1.0900
      55   340.0000     1.0900
      56   340.0000     1.0900
      57   340.0000     1.0900
      58   340.0000     1.0900
      59   340.0000     1.0900
      60   340.0000     1.0900
      61   340.0000     1.0900
      62   340.0000     1.0900
      63   340.0000     1.0900
      64   340.0000     1.0900
      65   340.0000     1.0900
      66   340.0000     1.0900
      67   340.0000     1.0900
      68   340.0000     1.0900
      69   340.0000     1.0900
      70   340.0000     1.0900
      71   340.0000     1.0900
      72   340.0000     1.0900
      73   340.0000     1.0900

Angle Coeffs

       1     58.350    112.700
       2     58.350    112.700
       3     58.350    112.700
       4     58.350    112.700
       5     58.350    112.700
       6     58.350    112.700
       7     58.350    112.700
       8     58.350    112.700
       9     58.350    112.700
      10     58.350    112.700
      11     58.350    112.700
      12     58.350    112.700
      13     58.350    112.700
      14     58.350    112.700
      15     58.350    112.700
      16     58.350    112.700
      17     58.350    112.700
      18     58.350    112.700
      19     58.350    112.700
      20     58.350    112.700
      21     58.350    112.700
      22     58.350    112.700
      23     37.500    110.700
      24     37.500    110.700
      25     37.500    110.700
      26     37.500    110.700
      27     37.500    110.700
      28     37.500    110.700
      29     37.500    110.700
      30     37.500    110.700
      31     37.500    110.700
      32     37.500    110.700
      33     37.500    110.700
      34     37.500    110.700
      35     37.500    110.700
      36     37.500    110.700
      37     37.500    110.700
      38     37.500    110.700
      39     37.500    110.700
      40     37.500    110.700
      41     37.500    110.700
      42     37.500    110.700
      43     37.500    110.700
      44     37.500    110.700
      45     37.500    110.700
      46     37.500    110.700
      47     37.500    110.700
      48     37.500    110.700
      49     37.500    110.700
      50     37.500    110.700
      51     37.500    110.700
      52     37.500    110.700
      53     37.500    110.700
      54     37.500    110.700
      55     37.500    110.700
      56     37.500    110.700
      57     37.500    110.700
      58     37.500    110.700
      59     37.500    110.700
      60     37.500    110.700
      61     37.500    110.700
      62     37.500    110.700
      63     37.500    110.700
      64     37.500    110.700
      65     37.500    110.700
      66     37.500    110.700
      67     37.500    110.700
      68     37.500    110.700
      69     37.500    110.700
      70     37.500    110.700
      71     37.500    110.700
      72     37.500    110.700
      73     37.500    110.700
      74     37.500    110.700
      75     33.000    107.800
      76     37.500    110.700
      77     33.000    107.800
      78     37.500    110.700
      79     37.500    110.700
      80     37.500    110.700
      81     37.500    110.700
      82     37.500    110.700
      83     37.500    110.700
      84     33.000    107.800
      85     33.000    107.800
      86     33.000    107.800
      87     33.000    107.800
      88     37.500    110.700
      89     37.500    110.700
      90     33.000    107.800
      91     33.000    107.800
      92     37.500    110.700
      93     37.500    110.700
      94     33.000    107.800
      95     37.500    110.700
      96     37.500    110.700
      97     33.000    107.800
      98     33.000    107.800
      99     37.500    110.700
     100     37.500    110.700
     101     33.000    107.800
     102     37.500    110.700
     103     37.500    110.700
     104     37.500    110.700
     105     37.500    110.700
     106     37.500    110.700
     107     37.500    110.700
     108     33.000    107.800
     109     33.000    107.800
     110     37.500    110.700
     111     37.500    110.700
     112     37.500    110.700
     113     37.500    110.700
     114     37.500    110.700
     115     37.500    110.700
     116     33.000    107.800
     117     37.500    110.700
     118     33.000    107.800
     119     37.500    110.700
     120     37.500    110.700
     121     37.500    110.700
     122     33.000    107.800
     123     37.500    110.700
     124     33.000    107.800
     125     37.500    110.700
     126     33.000    107.800
     127     37.500    110.700
     128     33.000    107.800
     129     33.000    107.800
     130     33.000    107.800
     131     33.000    107.800
     132     37.500    110.700
     133     33.000    107.800
     134     37.500    110.700
     135     37.500    110.700
     136     33.000    107.800
     137     37.500    110.700
     138     37.500    110.700
     139     37.500    110.700
     140     37.500    110.700
     141     33.000    107.800
     142     37.500    110.700
     143     33.000    107.800
     144     33.000    107.800

Dihedral Coeffs

       1      1.300     -0.200      0.200      0.000
       2      1.300     -0.200      0.200      0.000
       3      1.300     -0.200      0.200      0.000
       4      1.300     -0.200      0.200      0.000
       5      1.300     -0.200      0.200      0.000
       6      1.300     -0.200      0.200      0.000
       7      1.300     -0.200      0.200      0.000
       8      1.300     -0.200      0.200      0.000
       9      1.300     -0.200      0.200      0.000
      10      1.300     -0.200      0.200      0.000
      11      1.300     -0.200      0.200      0.000
      12      1.300     -0.200      0.200      0.000
      13      1.300     -0.200      0.200      0.000
      14      1.300     -0.200      0.200      0.000
      15      1.300     -0.200      0.200      0.000
      16      1.300     -0.200      0.200      0.000
      17      1.300     -0.200      0.200      0.000
      18      1.300     -0.200      0.200      0.000
      19      1.300     -0.200      0.200      0.000
      20      1.300     -0.200      0.200      0.000
      21      1.300     -0.200      0.200      0.000
      22      0.000      0.000      0.300      0.000
      23      0.000      0.000      0.300      0.000
      24      0.000      0.000      0.300      0.000
      25      0.000      0.000      0.300      0.000
      26      0.000      0.000      0.300      0.000
      27      0.000      0.000      0.300      0.000
      28      0.000      0.000      0.300      0.000
      29      0.000      0.000      0.300      0.000
      30      0.000      0.000      0.300      0.000
      31      0.000      0.000      0.300      0.000
      32      0.000      0.000      0.300      0.000
      33      0.000      0.000      0.300      0.000
      34      0.000      0.000      0.300      0.000
      35      0.000      0.000      0.300      0.000
      36      0.000      0.000      0.300      0.000
      37      0.000      0.000      0.300      0.000
      38      0.000      0.000      0.300      0.000
      39      0.000      0.000      0.300      0.000
      40      0.000      0.000      0.300      0.000
      41      0.000      0.000      0.300      0.000
      42      0.000      0.000      0.300      0.000
      43      0.000      0.000      0.300      0.000
      44      0.000      0.000      0.300      0.000
      45      0.000      0.000      0.300      0.000
      46      0.000      0.000      0.300      0.000
      47      0.000      0.000      0.300      0.000
      48      0.000      0.000      0.300      0.000
      49      0.000      0.000      0.300      0.000
      50      0.000      0.000      0.300      0.000
      51      0.000      0.000      0.300      0.000
      52      0.000      0.000      0.300      0.000
      53      0.000      0.000      0.300      0.000
      54      0.000      0.000      0.300      0.000
      55      0.000      0.000      0.300      0.000
      56      0.000      0.000      0.300      0.000
      57      0.000      0.000      0.300      0.000
      58      0.000      0.000      0.300      0.000
      59      0.000      0.000      0.300      0.000
      60      0.000      0.000      0.300      0.000
      61      0.000      0.000      0.300      0.000
      62      0.000      0.000      0.300      0.000
      63      0.000      0.000      0.300      0.000
      64      0.000      0.000      0.300      0.000
      65      0.000      0.000      0.300      0.000
      66      0.000      0.000      0.300      0.000
      67      0.000      0.000      0.300      0.000
      68      0.000      0.000      0.300      0.000
      69      0.000      0.000      0.300      0.000
      70      0.000      0.000      0.300      0.000
      71      0.000      0.000      0.300      0.000
      72      0.000      0.000      0.300      0.000
      73      0.000      0.000      0.300      0.000
      74      0.000      0.000      0.300      0.000
      75      0.000      0.000      0.300      0.000
      76      0.000      0.000      0.300      0.000
      77      0.000      0.000      0.300      0.000
      78      0.000      0.000      0.300      0.000
      79      0.000      0.000      0.300      0.000
      80      0.000      0.000      0.300      0.000
      81      0.000      0.000      0.300      0.000
      82      0.000      0.000      0.300      0.000
      83      0.000      0.000      0.300      0.000
      84      0.000      0.000      0.300      0.000
      85      0.000      0.000      0.300      0.000
      86      0.000      0.000      0.300      0.000
      87      0.000      0.000      0.300      0.000
      88      0.000      0.000      0.300      0.000
      89      0.000      0.000      0.300      0.000
      90      0.000      0.000      0.300      0.000
      91      0.000      0.000      0.300      0.000
      92      0.000      0.000      0.300      0.000
      93      0.000      0.000      0.300      0.000
      94      0.000      0.000      0.300      0.000
      95      0.000      0.000      0.300      0.000
      96      0.000      0.000      0.300      0.000
      97      0.000      0.000      0.300      0.000
      98      0.000      0.000      0.300      0.000
      99      0.000      0.000      0.300      0.000
     100      0.000      0.000      0.300      0.000
     101      0.000      0.000      0.300      0.000
     102      0.000      0.000      0.300      0.000
     103      0.000      0.000      0.300      0.000
     104      0.000      0.000      0.300      0.000
     105      0.000      0.000      0.300      0.000
     106      0.000      0.000      0.300      0.000
     107      0.000      0.000      0.300      0.000
     108      0.000      0.000      0.300      0.000
     109      0.000      0.000      0.300      0.000
     110      0.000      0.000      0.300      0.000
     111      0.000      0.000      0.300      0.000
     112      0.000      0.000      0.300      0.000
     113      0.000      0.000      0.300      0.000
     114      0.000      0.000      0.300      0.000
     115      0.000      0.000      0.300      0.000
     116      0.000      0.000      0.300      0.000
     117      0.000      0.000      0.300      0.000
     118      0.000      0.000      0.300      0.000
     119      0.000      0.000      0.300      0.000
     120      0.000      0.000      0.300      0.000
     121      0.000      0.000      0.300      0.000
     122      0.000      0.000      0.300      0.000
     123      0.000      0.000      0.300      0.000
     124      0.000      0.000      0.300      0.000
     125      0.000      0.000      0.300      0.000
     126      0.000      0.000      0.300      0.000
     127      0.000      0.000      0.300      0.000
     128      0.000      0.000      0.300      0.000
     129      0.000      0.000      0.300      0.000
     130      0.000      0.000      0.300      0.000
     131      0.000      0.000      0.300      0.000
     132      0.000      0.000      0.300      0.000
     133      0.000      0.000      0.300      0.000
     134      0.000      0.000      0.300      0.000
     135      0.000      0.000      0.300      0.000
     136      0.000      0.000      0.300      0.000
     137      0.000      0.000      0.300      0.000
     138      0.000      0.000      0.300      0.000
     139      0.000      0.000      0.300      0.000
     140      0.000      0.000      0.300      0.000
     141      0.000      0.000      0.300      0.000
     142      0.000      0.000      0.300      0.000
     143      0.000      0.000      0.300      0.000
     144      0.000      0.000      0.300      0.000
     145      0.000      0.000      0.300      0.000
     146      0.000      0.000      0.300      0.000
     147      0.000      0.000      0.300      0.000
     148      0.000      0.000      0.300      0.000
     149      0.000      0.000      0.300      0.000
     150      0.000      0.000      0.300      0.000
     151      0.000      0.000      0.300      0.000
     152      0.000      0.000      0.300      0.000
     153      0.000      0.000      0.300      0.000
     154      0.000      0.000      0.300      0.000
     155      0.000      0.000      0.300      0.000
     156      0.000      0.000      0.300      0.000
     157      0.000      0.000      0.300      0.000
     158      0.000      0.000      0.300      0.000
     159      0.000      0.000      0.300      0.000
     160      0.000      0.000      0.300      0.000
     161      0.000      0.000      0.300      0.000
     162      0.000      0.000      0.300      0.000
     163      0.000      0.000      0.300      0.000
     164      0.000      0.000      0.300      0.000
     165      0.000      0.000      0.300      0.000
     166      0.000      0.000      0.300      0.000
     167      0.000      0.000      0.300      0.000
     168      0.000      0.000      0.300      0.000
     169      0.000      0.000      0.300      0.000
     170      0.000      0.000      0.300      0.000
     171      0.000      0.000      0.300      0.000
     172      0.000      0.000      0.300      0.000
     173      0.000      0.000      0.300      0.000
     174      0.000      0.000      0.300      0.000
     175      0.000      0.000      0.300      0.000
     176      0.000      0.000      0.300      0.000
     177      0.000      0.000      0.300      0.000
     178      0.000      0.000      0.300      0.000
     179      0.000      0.000      0.300      0.000
     180      0.000      0.000      0.300      0.000
     181      0.000      0.000      0.300      0.000
     182      0.000      0.000      0.300      0.000
     183      0.000      0.000      0.300      0.000
     184      0.000      0.000      0.300      0.000
     185      0.000      0.000      0.300      0.000
     186      0.000      0.000      0.300      0.000
     187      0.000      0.000      0.300      0.000
     188      0.000      0.000      0.300      0.000
     189      0.000      0.000      0.300      0.000
     190      0.000      0.000      0.300      0.000
     191      0.000      0.000      0.300      0.000
     192      0.000      0.000      0.300      0.000
     193      0.000      0.000      0.300      0.000
     194      0.000      0.000      0.300      0.000
     195      0.000      0.000      0.300      0.000
     196      0.000      0.000      0.300      0.000
     197      0.000      0.000      0.300      0.000
     198      0.000      0.000      0.300      0.000
     199      0.000      0.000      0.300      0.000
     200      0.000      0.000      0.300      0.000
     201      0.000      0.000      0.300      0.000
     202      0.000      0.000      0.300      0.000
     203      0.000      0.000      0.300      0.000
     204      0.000      0.000      0.300      0.000
     205      0.000      0.000      0.300      0.000
     206      0.000      0.000      0.300      0.000
     207      0.000      0.000      0.300      0.000

Atoms

     1      1      1 -0.23890000    1.000  1.00000  0.00000
     2      1      2 -0.17970000   -0.519  1.00000  0.00000
     3      1      3 -0.17900000   -1.066  1.00000  1.42435
     4      1      4 -0.17950000   -2.592  1.00180  1.42762
     5      1      5 -0.17970000   -3.128  1.00359  2.85544
     6      1      6 -0.17960000   -4.652  1.00359  2.86360
     7      1      7 -0.18010000   -5.179  1.00358  4.29263
     8      1      8 -0.18020000   -6.701  1.00178  4.30078
     9      1      9 -0.18010000   -7.227  0.99996  5.72942
    10      1     10 -0.18000000   -8.749  0.99636  5.73432
    11      1     11 -0.18020000   -9.275  0.99635  7.16237
    12      1     12 -0.18030000  -10.796  0.99095  7.16565
    13      1     13 -0.18010000  -11.323  0.98913  8.59307
    14      1     14 -0.18020000  -12.844  0.98192  8.59635
    15      1     15 -0.18020000  -13.370  0.98192 10.02445
    16      1     16 -0.18010000  -14.891  0.97291 10.02935
    17      1     17 -0.18010000  -15.417  0.97471 11.45797
    18      1     18 -0.17990000  -16.940  0.96750 11.46450
    19      1     19 -0.17980000  -17.467  0.97109 12.89318
    20      1     20 -0.17970000  -18.992  0.96208 12.90135
    21      1     21 -0.17960000  -19.525  0.96745 14.33094
    22      1     22 -0.17890000  -21.050  0.95662 14.33749
    23      1     23 -0.17970000  -21.592  0.96370 15.76387
    24      1     24 -0.23870000  -23.111  0.95114 15.77204
    25      1     25 0.08070000    1.377  0.99870 -1.02860
    26      1     26 0.08070000    1.390  0.11269  0.50734
    27      1     27 0.08070000    1.390  1.88857  0.50509
    28      1     28 0.08850000   -0.881  0.11628 -0.53838
    29      1     29 0.08850000   -0.881  1.88366 -0.53834
    30      1     30 0.08960000   -0.697  1.88291  1.96102
    31      1     31 0.08960000   -0.698  0.11668  1.96040
    32      1     32 0.08960000   -2.964  0.11822  0.89508
    33      1     33 0.08960000   -2.962  1.88555  0.89355
    34      1     34 0.08960000   -2.757  1.88766  3.38888
    35      1     35 0.08960000   -2.757  0.12098  3.39102
    36      1     36 0.08990000   -5.026  0.12016  2.33163
    37      1     37 0.08990000   -5.026  1.88700  2.33166
    38      1     38 0.08990000   -4.808  1.88781  4.82532
    39      1     39 0.08990000   -4.806  0.12065  4.82610
    40      1     40 0.09000000   -7.071  0.11680  3.76712
    41      1     41 0.09000000   -7.076  1.88510  3.76961
    42      1     42 0.09010000   -6.855  1.88472  6.26160
    43      1     43 0.09010000   -6.852  0.11712  6.26171
    44      1     44 0.09010000   -9.119  0.11083  5.20186
    45      1     45 0.09010000   -9.124  1.87763  5.20128
    46      1     46 0.09010000   -8.906  1.88259  7.69357
    47      1     47 0.09010000   -8.899  0.11536  7.69704
    48      1     48 0.09010000  -11.164  0.10591  6.63235
    49      1     49 0.09010000  -11.170  1.87334  6.63227
    50      1     50 0.09010000  -10.954  1.87503  9.12476
    51      1     51 0.09010000  -10.946  0.10773  9.12649
    52      1     52 0.09010000  -13.212  0.09570  8.06466
    53      1     53 0.09010000  -13.221  1.86242  8.06180
    54      1     54 0.09010000  -13.001  1.86909 10.55419
    55      1     55 0.09010000  -12.991  0.10159 10.55797
    56      1     56 0.09010000  -15.258  0.08511  9.49942
    57      1     57 0.09010000  -15.268  1.85257  9.49338
    58      1     58 0.09000000  -15.047  1.86180 11.98693
    59      1     59 0.09000000  -15.038  0.09513 11.99250
    60      1     60 0.09000000  -17.307  0.08011 10.93453
    61      1     61 0.09000000  -17.315  1.84682 10.92698
    62      1     62 0.08990000  -17.098  1.85959 13.42064
    63      1     63 0.08990000  -17.087  0.09207 13.42894
    64      1     64 0.08980000  -19.357  0.07342 12.37331
    65      1     65 0.08980000  -19.367  1.84007 12.36271
    66      1     66 0.08960000  -19.157  1.85727 14.85692
    67      1     67 0.08960000  -19.145  0.08967 14.86831
    68      1     68 0.08960000  -21.413  0.06666 13.80919
    69      1     69 0.08960000  -21.426  1.83307 13.79564
    70      1     70 0.08840000  -21.234  1.85422 16.29349
    71      1     71 0.08840000  -21.219  0.08782 16.30793
    72      1     72 0.08070000  -23.511  1.83072 15.25705
    73      1     73 0.08070000  -23.484  0.95886 16.79968
    74      1     74 0.08070000  -23.496  0.05633 15.27259

Bonds

     1      1      2      1
     2      2      3      2
     3      3      4      3
     4      4      5      4
     5      5      6      5
     6      6      7      6
     7      7      8      7
     8      8      9      8
     9      9     10      9
    10     10     11     10
    11     11     12     11
    12     12     13     12
    13     13     14     13
    14     14     15     14
    15     15     16     15
    16     16     17     16
    17     17     18     17
    18     18     19     18
    19     19     20     19
    20     20     21     20
    21     21     22     21
    22     22     23     22
    23     23     24     23
    24     24     25      1
    25     25     26      1
    26     26     27      1
    27     27     28      2
    28     28     29      2
    29     29     30      3
    30     30     31      3
    31     31     32      4
    32     32     33      4
    33     33     34      5
    34     34     35      5
    35     35     36      6
    36     36     37      6
    37     37     38      7
    38     38     39      7
    39     39     40      8
    40     40     41      8
    41     41     42      9
    42     42     43      9
    43     43     44     10
    44     44     45     10
    45     45     46     11
    46     46     47     11
    47     47     48     12
    48     48     49     12
    49     49     50     13
    50     50     51     13
    51     51     52     14
    52     52     53     14
    53     53     54     15
    54     54     55     15
    55     55     56     16
    56     56     57     16
    57     57     58     17
    58     58     59     17
    59     59     60     18
    60     60     61     18
    61     61     62     19
    62     62     63     19
    63     63     64     20
    64     64     65     20
    65     65     66     21
    66     66     67     21
    67     67     68     22
    68     68     69     22
    69     69     70     23
    70     70     71     23
    71     71     72     24
    72     72     73     24
    73     73     74     24

Angles

     1      1      1      2      3
     2      2      2      3      4
     3      3      3      4      5
     4      4      4      5      6
     5      5      5      6      7
     6      6      6      7      8
     7      7      7      8      9
     8      8      8      9     10
     9      9      9     10     11
    10     10     10     11     12
    11     11     11     12     13
    12     12     12     13     14
    13     13     13     14     15
    14     14     14     15     16
    15     15     15     16     17
    16     16     16     17     18
    17     17     17     18     19
    18     18     18     19     20
    19     19     19     20     21
    20     20     20     21     22
    21     21     21     22     23
    22     22     22     23     24
    23     23      2      1     25
    24     24      2      1     26
    25     25      2      1     27
    26     26      1      2     28
    27     27      1      2     29
    28     28      2      3     30
    29     29      2      3     31
    30     30      3      4     32
    31     31      3      4     33
    32     32      4      5     34
    33     33      4      5     35
    34     34      5      6     36
    35     35      5      6     37
    36     36      6      7     38
    37     37      6      7     39
    38     38      7      8     40
    39     39      7      8     41
    40     40      8      9     42
    41     41      8      9     43
    42     42      9     10     44
    43     43      9     10     45
    44     44     10     11     46
    45     45     10     11     47
    46     46     11     12     48
    47     47     11     12     49